
Host: yeti

Timers On : Wed Jan 31 18:27:20 2018
Timers Off: Wed Jan 31 18:27:22 2018

Wall Time:        1.58 seconds


-----------------------------------------------------------

***********************************************************

Host: yeti

Timers On : Wed Jan 31 18:41:10 2018
Timers Off: Wed Jan 31 18:41:10 2018

Wall Time:        0.19 seconds


-----------------------------------------------------------

***********************************************************

Host: yeti

Timers On : Wed Jan 31 18:45:26 2018
Timers Off: Wed Jan 31 18:45:27 2018

Wall Time:        0.47 seconds


-----------------------------------------------------------

***********************************************************

Host: yeti

Timers On : Wed Jan 31 18:45:56 2018
Timers Off: Wed Jan 31 18:45:56 2018

Wall Time:        0.49 seconds


-----------------------------------------------------------

***********************************************************

Host: yeti

Timers On : Wed Jan 31 18:46:53 2018
Timers Off: Wed Jan 31 18:46:54 2018

Wall Time:        1.30 seconds

JK: (A|mn)                  :      0.033u      0.000s      0.027w      1 calls
JK: (A|Q)^-1/2              :      0.050u      0.000s      0.098w      1 calls
JK: (Q|mn)                  :      0.000u      0.000s      0.001w      1 calls
HF: Form H                  :      0.000u      0.000s      0.001w      1 calls
HF: Form S/X                :      0.000u      0.000s      0.000w      1 calls
HF: Guess                   :      0.267u      0.000s      0.183w      1 calls
SAD Guess                   :      0.250u      0.000s      0.177w      1 calls
HF: Form G                  :      0.017u      0.000s      0.003w      8 calls
JK: D                       :      0.000u      0.000s      0.000w      8 calls
JK: USO2AO                  :      0.017u      0.000s      0.000w      8 calls
JK: JK                      :      0.000u      0.000s      0.003w      8 calls
JK: J                       :      0.000u      0.000s      0.000w      8 calls
JK: J1                      :      0.000u      0.000s      0.000w      8 calls
JK: J2                      :      0.000u      0.000s      0.000w      8 calls
JK: K                       :      0.000u      0.000s      0.002w      8 calls
JK: K1                      :      0.000u      0.000s      0.002w      8 calls
JK: K2                      :      0.000u      0.000s      0.000w      8 calls
JK: AO2USO                  :      0.000u      0.000s      0.000w      8 calls
HF: Form F                  :      0.000u      0.000s      0.000w      8 calls
HF: DIIS                    :      0.000u      0.000s      0.001w      8 calls
DIISManager::add_entry      :      0.000u      0.000s      0.000w      7 calls
DIISManager::extrapolate    :      0.000u      0.000s      0.000w      6 calls
bMatrix setup               :      0.000u      0.000s      0.000w      6 calls
bMatrix pseudoinverse       :      0.000u      0.000s      0.000w      6 calls
New vector                  :      0.000u      0.000s      0.000w      6 calls
HF: Form C                  :      0.000u      0.000s      0.001w      8 calls
HF: Form D                  :      0.000u      0.000s      0.000w      8 calls

-----------------------------------------------------------
JK: (A|mn)                  :      0.033u      0.000s      0.027w      1 calls
JK: (A|Q)^-1/2              :      0.050u      0.000s      0.098w      1 calls
JK: (Q|mn)                  :      0.000u      0.000s      0.001w      1 calls
HF: Form H                  :      0.000u      0.000s      0.001w      1 calls
HF: Form S/X                :      0.000u      0.000s      0.000w      1 calls
HF: Guess                   :      0.267u      0.000s      0.183w      1 calls
| SAD Guess                 :      0.250u      0.000s      0.177w      1 calls
HF: Form G                  :      0.017u      0.000s      0.003w      8 calls
| JK: D                     :      0.000u      0.000s      0.000w      8 calls
| JK: USO2AO                :      0.017u      0.000s      0.000w      8 calls
| JK: JK                    :      0.000u      0.000s      0.003w      8 calls
| | JK: J                   :      0.000u      0.000s      0.000w      8 calls
| | | JK: J1                :      0.000u      0.000s      0.000w      8 calls
| | | JK: J2                :      0.000u      0.000s      0.000w      8 calls
| | JK: K                   :      0.000u      0.000s      0.002w      8 calls
| | | JK: K1                :      0.000u      0.000s      0.002w      8 calls
| | | JK: K2                :      0.000u      0.000s      0.000w      8 calls
| JK: AO2USO                :      0.000u      0.000s      0.000w      8 calls
HF: Form F                  :      0.000u      0.000s      0.000w      8 calls
HF: DIIS                    :      0.000u      0.000s      0.001w      8 calls
| DIISManager::add_entry    :      0.000u      0.000s      0.000w      7 calls
| DIISManager::extrapolate  :      0.000u      0.000s      0.000w      6 calls
| | bMatrix setup           :      0.000u      0.000s      0.000w      6 calls
| | bMatrix pseudoinverse   :      0.000u      0.000s      0.000w      6 calls
| | New vector              :      0.000u      0.000s      0.000w      6 calls
HF: Form C                  :      0.000u      0.000s      0.001w      8 calls
HF: Form D                  :      0.000u      0.000s      0.000w      8 calls

***********************************************************

Host: yeti

Timers On : Wed Jan 31 18:47:46 2018
Timers Off: Wed Jan 31 18:47:46 2018

Wall Time:        0.58 seconds

JK: (A|mn)                  :      0.033u      0.017s      0.021w      1 calls
JK: (A|Q)^-1/2              :      0.050u      0.000s      0.030w      1 calls
JK: (Q|mn)                  :      0.000u      0.000s      0.001w      1 calls
HF: Form H                  :      0.000u      0.000s      0.001w      1 calls
HF: Form S/X                :      0.000u      0.000s      0.000w      1 calls
HF: Guess                   :      0.000u      0.000s      0.000w      1 calls
HF: Form G                  :      0.000u      0.000s      0.011w      8 calls
JK: D                       :      0.000u      0.000s      0.000w      8 calls
JK: USO2AO                  :      0.000u      0.000s      0.000w      8 calls
JK: JK                      :      0.000u      0.000s      0.010w      8 calls
JK: J                       :      0.000u      0.000s      0.001w      8 calls
JK: J1                      :      0.000u      0.000s      0.000w     16 calls
JK: J2                      :      0.000u      0.000s      0.000w     16 calls
JK: K                       :      0.000u      0.000s      0.009w      8 calls
JK: K1                      :      0.000u      0.000s      0.008w     16 calls
JK: K2                      :      0.000u      0.000s      0.001w     16 calls
JK: AO2USO                  :      0.000u      0.000s      0.000w      8 calls
HF: Form F                  :      0.000u      0.000s      0.000w      8 calls
HF: DIIS                    :      0.000u      0.000s      0.002w      8 calls
DIISManager::add_entry      :      0.000u      0.000s      0.000w      8 calls
DIISManager::extrapolate    :      0.000u      0.000s      0.001w      7 calls
bMatrix setup               :      0.000u      0.000s      0.000w      7 calls
bMatrix pseudoinverse       :      0.000u      0.000s      0.000w      7 calls
New vector                  :      0.000u      0.000s      0.000w      7 calls
HF: Form C                  :      0.000u      0.000s      0.001w      8 calls
HF: Form D                  :      0.017u      0.000s      0.000w      8 calls

-----------------------------------------------------------
JK: (A|mn)                  :      0.033u      0.017s      0.021w      1 calls
JK: (A|Q)^-1/2              :      0.050u      0.000s      0.030w      1 calls
JK: (Q|mn)                  :      0.000u      0.000s      0.001w      1 calls
HF: Form H                  :      0.000u      0.000s      0.001w      1 calls
HF: Form S/X                :      0.000u      0.000s      0.000w      1 calls
HF: Guess                   :      0.000u      0.000s      0.000w      1 calls
HF: Form G                  :      0.000u      0.000s      0.011w      8 calls
| JK: D                     :      0.000u      0.000s      0.000w      8 calls
| JK: USO2AO                :      0.000u      0.000s      0.000w      8 calls
| JK: JK                    :      0.000u      0.000s      0.010w      8 calls
| | JK: J                   :      0.000u      0.000s      0.001w      8 calls
| | | JK: J1                :      0.000u      0.000s      0.000w     16 calls
| | | JK: J2                :      0.000u      0.000s      0.000w     16 calls
| | JK: K                   :      0.000u      0.000s      0.009w      8 calls
| | | JK: K1                :      0.000u      0.000s      0.008w     16 calls
| | | JK: K2                :      0.000u      0.000s      0.001w     16 calls
| JK: AO2USO                :      0.000u      0.000s      0.000w      8 calls
HF: Form F                  :      0.000u      0.000s      0.000w      8 calls
HF: DIIS                    :      0.000u      0.000s      0.002w      8 calls
| DIISManager::add_entry    :      0.000u      0.000s      0.000w      8 calls
| DIISManager::extrapolate  :      0.000u      0.000s      0.001w      7 calls
| | bMatrix setup           :      0.000u      0.000s      0.000w      7 calls
| | bMatrix pseudoinverse   :      0.000u      0.000s      0.000w      7 calls
| | New vector              :      0.000u      0.000s      0.000w      7 calls
HF: Form C                  :      0.000u      0.000s      0.001w      8 calls
HF: Form D                  :      0.017u      0.000s      0.000w      8 calls

***********************************************************

Host: yeti

Timers On : Wed Jan 31 18:50:52 2018
Timers Off: Wed Jan 31 18:50:54 2018

Wall Time:        1.52 seconds


-----------------------------------------------------------

***********************************************************

Host: yeti

Timers On : Wed Jan 31 18:53:21 2018
Timers Off: Wed Jan 31 18:53:21 2018

Wall Time:        0.29 seconds


-----------------------------------------------------------

***********************************************************

Host: yeti

Timers On : Wed Jan 31 18:54:07 2018
Timers Off: Wed Jan 31 18:54:08 2018

Wall Time:        0.27 seconds


-----------------------------------------------------------

***********************************************************

Host: yeti

Timers On : Wed Jan 31 18:54:21 2018
Timers Off: Wed Jan 31 18:54:22 2018

Wall Time:        0.47 seconds


-----------------------------------------------------------

***********************************************************

Host: yeti

Timers On : Thu Feb  1 09:55:33 2018
Timers Off: Thu Feb  1 09:55:37 2018

Wall Time:        3.55 seconds


-----------------------------------------------------------

***********************************************************

Host: yeti

Timers On : Thu Feb  1 09:56:31 2018
Timers Off: Thu Feb  1 09:56:31 2018

Wall Time:        0.32 seconds


-----------------------------------------------------------

***********************************************************

Host: yeti

Timers On : Thu Feb  1 09:56:57 2018
Timers Off: Thu Feb  1 09:56:57 2018

Wall Time:        0.54 seconds


-----------------------------------------------------------

***********************************************************

Host: yeti

Timers On : Thu Feb  1 09:57:06 2018
Timers Off: Thu Feb  1 09:57:07 2018

Wall Time:        0.40 seconds


-----------------------------------------------------------

***********************************************************

Host: yeti

Timers On : Thu Feb  1 09:58:28 2018
Timers Off: Thu Feb  1 09:58:29 2018

Wall Time:        1.11 seconds

JK: (A|mn)                  :      0.067u      0.000s      0.078w      1 calls
JK: (A|Q)^-1/2              :      0.067u      0.017s      0.091w      1 calls
JK: (Q|mn)                  :      0.000u      0.000s      0.002w      1 calls
HF: Form H                  :      0.000u      0.000s      0.049w      1 calls
HF: Form S/X                :      0.000u      0.000s      0.000w      1 calls
HF: Guess                   :      0.000u      0.000s      0.000w      1 calls
HF: Form G                  :      0.017u      0.000s      0.018w      8 calls
JK: D                       :      0.000u      0.000s      0.000w      8 calls
JK: USO2AO                  :      0.000u      0.000s      0.001w      8 calls
JK: JK                      :      0.017u      0.000s      0.017w      8 calls
JK: J                       :      0.000u      0.000s      0.001w      8 calls
JK: J1                      :      0.000u      0.000s      0.001w     16 calls
JK: J2                      :      0.000u      0.000s      0.001w     16 calls
JK: K                       :      0.017u      0.000s      0.015w      8 calls
JK: K1                      :      0.017u      0.000s      0.013w     16 calls
JK: K2                      :      0.000u      0.000s      0.002w     16 calls
JK: AO2USO                  :      0.000u      0.000s      0.001w      8 calls
HF: Form F                  :      0.000u      0.000s      0.000w      8 calls
HF: DIIS                    :      0.017u      0.000s      0.003w      8 calls
DIISManager::add_entry      :      0.017u      0.000s      0.001w      8 calls
DIISManager::extrapolate    :      0.000u      0.000s      0.001w      7 calls
bMatrix setup               :      0.000u      0.000s      0.000w      7 calls
bMatrix pseudoinverse       :      0.000u      0.000s      0.000w      7 calls
New vector                  :      0.000u      0.000s      0.000w      7 calls
HF: Form C                  :      0.000u      0.000s      0.002w      8 calls
HF: Form D                  :      0.000u      0.000s      0.000w      8 calls

-----------------------------------------------------------
JK: (A|mn)                  :      0.067u      0.000s      0.078w      1 calls
JK: (A|Q)^-1/2              :      0.067u      0.017s      0.091w      1 calls
JK: (Q|mn)                  :      0.000u      0.000s      0.002w      1 calls
HF: Form H                  :      0.000u      0.000s      0.049w      1 calls
HF: Form S/X                :      0.000u      0.000s      0.000w      1 calls
HF: Guess                   :      0.000u      0.000s      0.000w      1 calls
HF: Form G                  :      0.017u      0.000s      0.018w      8 calls
| JK: D                     :      0.000u      0.000s      0.000w      8 calls
| JK: USO2AO                :      0.000u      0.000s      0.001w      8 calls
| JK: JK                    :      0.017u      0.000s      0.017w      8 calls
| | JK: J                   :      0.000u      0.000s      0.001w      8 calls
| | | JK: J1                :      0.000u      0.000s      0.001w     16 calls
| | | JK: J2                :      0.000u      0.000s      0.001w     16 calls
| | JK: K                   :      0.017u      0.000s      0.015w      8 calls
| | | JK: K1                :      0.017u      0.000s      0.013w     16 calls
| | | JK: K2                :      0.000u      0.000s      0.002w     16 calls
| JK: AO2USO                :      0.000u      0.000s      0.001w      8 calls
HF: Form F                  :      0.000u      0.000s      0.000w      8 calls
HF: DIIS                    :      0.017u      0.000s      0.003w      8 calls
| DIISManager::add_entry    :      0.017u      0.000s      0.001w      8 calls
| DIISManager::extrapolate  :      0.000u      0.000s      0.001w      7 calls
| | bMatrix setup           :      0.000u      0.000s      0.000w      7 calls
| | bMatrix pseudoinverse   :      0.000u      0.000s      0.000w      7 calls
| | New vector              :      0.000u      0.000s      0.000w      7 calls
HF: Form C                  :      0.000u      0.000s      0.002w      8 calls
HF: Form D                  :      0.000u      0.000s      0.000w      8 calls

***********************************************************

Host: yeti

Timers On : Thu Feb  1 10:06:17 2018
Timers Off: Thu Feb  1 10:06:18 2018

Wall Time:        0.67 seconds


-----------------------------------------------------------

***********************************************************

Host: yeti

Timers On : Thu Feb  1 10:21:04 2018
Timers Off: Thu Feb  1 10:21:04 2018

Wall Time:        0.70 seconds

JK: (A|mn)                  :      0.017u      0.000s      0.006w      1 calls
JK: (A|Q)^-1/2              :      0.067u      0.017s      0.082w      1 calls
JK: (Q|mn)                  :      0.000u      0.000s      0.001w      1 calls
HF: Form H                  :      0.000u      0.000s      0.001w      1 calls
HF: Form S/X                :      0.000u      0.000s      0.000w      1 calls
HF: Guess                   :      0.000u      0.000s      0.000w      1 calls
HF: Form G                  :      0.017u      0.000s      0.012w      8 calls
JK: D                       :      0.000u      0.000s      0.000w      8 calls
JK: USO2AO                  :      0.000u      0.000s      0.001w      8 calls
JK: JK                      :      0.017u      0.000s      0.011w      8 calls
JK: J                       :      0.000u      0.000s      0.001w      8 calls
JK: J1                      :      0.000u      0.000s      0.000w     16 calls
JK: J2                      :      0.000u      0.000s      0.000w     16 calls
JK: K                       :      0.017u      0.000s      0.009w      8 calls
JK: K1                      :      0.017u      0.000s      0.008w     16 calls
JK: K2                      :      0.000u      0.000s      0.002w     16 calls
JK: AO2USO                  :      0.000u      0.000s      0.000w      8 calls
HF: Form F                  :      0.000u      0.000s      0.000w      8 calls
HF: DIIS                    :      0.000u      0.000s      0.002w      8 calls
DIISManager::add_entry      :      0.000u      0.000s      0.001w      8 calls
DIISManager::extrapolate    :      0.000u      0.000s      0.001w      7 calls
bMatrix setup               :      0.000u      0.000s      0.000w      7 calls
bMatrix pseudoinverse       :      0.000u      0.000s      0.000w      7 calls
New vector                  :      0.000u      0.000s      0.000w      7 calls
HF: Form C                  :      0.000u      0.000s      0.001w      8 calls
HF: Form D                  :      0.000u      0.000s      0.000w      8 calls

-----------------------------------------------------------
JK: (A|mn)                  :      0.017u      0.000s      0.006w      1 calls
JK: (A|Q)^-1/2              :      0.067u      0.017s      0.082w      1 calls
JK: (Q|mn)                  :      0.000u      0.000s      0.001w      1 calls
HF: Form H                  :      0.000u      0.000s      0.001w      1 calls
HF: Form S/X                :      0.000u      0.000s      0.000w      1 calls
HF: Guess                   :      0.000u      0.000s      0.000w      1 calls
HF: Form G                  :      0.017u      0.000s      0.012w      8 calls
| JK: D                     :      0.000u      0.000s      0.000w      8 calls
| JK: USO2AO                :      0.000u      0.000s      0.001w      8 calls
| JK: JK                    :      0.017u      0.000s      0.011w      8 calls
| | JK: J                   :      0.000u      0.000s      0.001w      8 calls
| | | JK: J1                :      0.000u      0.000s      0.000w     16 calls
| | | JK: J2                :      0.000u      0.000s      0.000w     16 calls
| | JK: K                   :      0.017u      0.000s      0.009w      8 calls
| | | JK: K1                :      0.017u      0.000s      0.008w     16 calls
| | | JK: K2                :      0.000u      0.000s      0.002w     16 calls
| JK: AO2USO                :      0.000u      0.000s      0.000w      8 calls
HF: Form F                  :      0.000u      0.000s      0.000w      8 calls
HF: DIIS                    :      0.000u      0.000s      0.002w      8 calls
| DIISManager::add_entry    :      0.000u      0.000s      0.001w      8 calls
| DIISManager::extrapolate  :      0.000u      0.000s      0.001w      7 calls
| | bMatrix setup           :      0.000u      0.000s      0.000w      7 calls
| | bMatrix pseudoinverse   :      0.000u      0.000s      0.000w      7 calls
| | New vector              :      0.000u      0.000s      0.000w      7 calls
HF: Form C                  :      0.000u      0.000s      0.001w      8 calls
HF: Form D                  :      0.000u      0.000s      0.000w      8 calls

***********************************************************

Host: yeti

Timers On : Thu Feb  1 10:26:08 2018
Timers Off: Thu Feb  1 10:26:09 2018

Wall Time:        0.53 seconds

JK: (A|mn)                  :      0.017u      0.000s      0.008w      1 calls
JK: (A|Q)^-1/2              :      0.050u      0.017s      0.040w      1 calls
JK: (Q|mn)                  :      0.000u      0.000s      0.001w      1 calls
HF: Form H                  :      0.000u      0.000s      0.001w      1 calls
HF: Form S/X                :      0.000u      0.000s      0.000w      1 calls
HF: Guess                   :      0.000u      0.000s      0.000w      1 calls
HF: Form G                  :      0.033u      0.000s      0.008w      8 calls
JK: D                       :      0.000u      0.000s      0.000w      8 calls
JK: USO2AO                  :      0.017u      0.000s      0.000w      8 calls
JK: JK                      :      0.017u      0.000s      0.007w      8 calls
JK: J                       :      0.000u      0.000s      0.001w      8 calls
JK: J1                      :      0.000u      0.000s      0.000w     16 calls
JK: J2                      :      0.000u      0.000s      0.000w     16 calls
JK: K                       :      0.017u      0.000s      0.006w      8 calls
JK: K1                      :      0.017u      0.000s      0.005w     16 calls
JK: K2                      :      0.000u      0.000s      0.001w     16 calls
JK: AO2USO                  :      0.000u      0.000s      0.000w      8 calls
HF: Form F                  :      0.000u      0.000s      0.000w      8 calls
HF: DIIS                    :      0.000u      0.000s      0.001w      8 calls
DIISManager::add_entry      :      0.000u      0.000s      0.000w      8 calls
DIISManager::extrapolate    :      0.000u      0.000s      0.001w      7 calls
bMatrix setup               :      0.000u      0.000s      0.000w      7 calls
bMatrix pseudoinverse       :      0.000u      0.000s      0.000w      7 calls
New vector                  :      0.000u      0.000s      0.000w      7 calls
HF: Form C                  :      0.000u      0.000s      0.001w      8 calls
HF: Form D                  :      0.000u      0.000s      0.000w      8 calls

-----------------------------------------------------------
JK: (A|mn)                  :      0.017u      0.000s      0.008w      1 calls
JK: (A|Q)^-1/2              :      0.050u      0.017s      0.040w      1 calls
JK: (Q|mn)                  :      0.000u      0.000s      0.001w      1 calls
HF: Form H                  :      0.000u      0.000s      0.001w      1 calls
HF: Form S/X                :      0.000u      0.000s      0.000w      1 calls
HF: Guess                   :      0.000u      0.000s      0.000w      1 calls
HF: Form G                  :      0.033u      0.000s      0.008w      8 calls
| JK: D                     :      0.000u      0.000s      0.000w      8 calls
| JK: USO2AO                :      0.017u      0.000s      0.000w      8 calls
| JK: JK                    :      0.017u      0.000s      0.007w      8 calls
| | JK: J                   :      0.000u      0.000s      0.001w      8 calls
| | | JK: J1                :      0.000u      0.000s      0.000w     16 calls
| | | JK: J2                :      0.000u      0.000s      0.000w     16 calls
| | JK: K                   :      0.017u      0.000s      0.006w      8 calls
| | | JK: K1                :      0.017u      0.000s      0.005w     16 calls
| | | JK: K2                :      0.000u      0.000s      0.001w     16 calls
| JK: AO2USO                :      0.000u      0.000s      0.000w      8 calls
HF: Form F                  :      0.000u      0.000s      0.000w      8 calls
HF: DIIS                    :      0.000u      0.000s      0.001w      8 calls
| DIISManager::add_entry    :      0.000u      0.000s      0.000w      8 calls
| DIISManager::extrapolate  :      0.000u      0.000s      0.001w      7 calls
| | bMatrix setup           :      0.000u      0.000s      0.000w      7 calls
| | bMatrix pseudoinverse   :      0.000u      0.000s      0.000w      7 calls
| | New vector              :      0.000u      0.000s      0.000w      7 calls
HF: Form C                  :      0.000u      0.000s      0.001w      8 calls
HF: Form D                  :      0.000u      0.000s      0.000w      8 calls

***********************************************************

Host: yeti

Timers On : Thu Feb  1 10:36:03 2018
Timers Off: Thu Feb  1 10:36:17 2018

Wall Time:       14.01 seconds


-----------------------------------------------------------

***********************************************************

Host: yeti

Timers On : Thu Feb  1 10:44:24 2018
Timers Off: Thu Feb  1 10:44:24 2018

Wall Time:        0.59 seconds

JK: (A|mn)                  :      0.017u      0.000s      0.008w      1 calls
JK: (A|Q)^-1/2              :      0.067u      0.000s      0.042w      1 calls
JK: (Q|mn)                  :      0.000u      0.000s      0.001w      1 calls
HF: Form H                  :      0.000u      0.000s      0.001w      1 calls
HF: Form S/X                :      0.000u      0.000s      0.000w      1 calls
HF: Guess                   :      0.000u      0.000s      0.000w      1 calls
HF: Form G                  :      0.017u      0.000s      0.008w      8 calls
JK: D                       :      0.000u      0.000s      0.000w      8 calls
JK: USO2AO                  :      0.000u      0.000s      0.000w      8 calls
JK: JK                      :      0.017u      0.000s      0.007w      8 calls
JK: J                       :      0.000u      0.000s      0.001w      8 calls
JK: J1                      :      0.000u      0.000s      0.000w     16 calls
JK: J2                      :      0.000u      0.000s      0.000w     16 calls
JK: K                       :      0.017u      0.000s      0.006w      8 calls
JK: K1                      :      0.000u      0.000s      0.005w     16 calls
JK: K2                      :      0.017u      0.000s      0.001w     16 calls
JK: AO2USO                  :      0.000u      0.000s      0.000w      8 calls
HF: Form F                  :      0.000u      0.000s      0.000w      8 calls
HF: DIIS                    :      0.000u      0.000s      0.002w      8 calls
DIISManager::add_entry      :      0.000u      0.000s      0.000w      8 calls
DIISManager::extrapolate    :      0.000u      0.000s      0.001w      7 calls
bMatrix setup               :      0.000u      0.000s      0.000w      7 calls
bMatrix pseudoinverse       :      0.000u      0.000s      0.000w      7 calls
New vector                  :      0.000u      0.000s      0.000w      7 calls
HF: Form C                  :      0.000u      0.000s      0.001w      8 calls
HF: Form D                  :      0.000u      0.000s      0.000w      8 calls

-----------------------------------------------------------
JK: (A|mn)                  :      0.017u      0.000s      0.008w      1 calls
JK: (A|Q)^-1/2              :      0.067u      0.000s      0.042w      1 calls
JK: (Q|mn)                  :      0.000u      0.000s      0.001w      1 calls
HF: Form H                  :      0.000u      0.000s      0.001w      1 calls
HF: Form S/X                :      0.000u      0.000s      0.000w      1 calls
HF: Guess                   :      0.000u      0.000s      0.000w      1 calls
HF: Form G                  :      0.017u      0.000s      0.008w      8 calls
| JK: D                     :      0.000u      0.000s      0.000w      8 calls
| JK: USO2AO                :      0.000u      0.000s      0.000w      8 calls
| JK: JK                    :      0.017u      0.000s      0.007w      8 calls
| | JK: J                   :      0.000u      0.000s      0.001w      8 calls
| | | JK: J1                :      0.000u      0.000s      0.000w     16 calls
| | | JK: J2                :      0.000u      0.000s      0.000w     16 calls
| | JK: K                   :      0.017u      0.000s      0.006w      8 calls
| | | JK: K1                :      0.000u      0.000s      0.005w     16 calls
| | | JK: K2                :      0.017u      0.000s      0.001w     16 calls
| JK: AO2USO                :      0.000u      0.000s      0.000w      8 calls
HF: Form F                  :      0.000u      0.000s      0.000w      8 calls
HF: DIIS                    :      0.000u      0.000s      0.002w      8 calls
| DIISManager::add_entry    :      0.000u      0.000s      0.000w      8 calls
| DIISManager::extrapolate  :      0.000u      0.000s      0.001w      7 calls
| | bMatrix setup           :      0.000u      0.000s      0.000w      7 calls
| | bMatrix pseudoinverse   :      0.000u      0.000s      0.000w      7 calls
| | New vector              :      0.000u      0.000s      0.000w      7 calls
HF: Form C                  :      0.000u      0.000s      0.001w      8 calls
HF: Form D                  :      0.000u      0.000s      0.000w      8 calls

***********************************************************

Host: yeti

Timers On : Thu Feb  1 10:44:34 2018
Timers Off: Thu Feb  1 10:44:34 2018

Wall Time:        0.61 seconds

JK: (A|mn)                  :      0.000u      0.000s      0.008w      1 calls
JK: (A|Q)^-1/2              :      0.067u      0.017s      0.042w      1 calls
JK: (Q|mn)                  :      0.000u      0.000s      0.001w      1 calls
HF: Form H                  :      0.000u      0.000s      0.001w      1 calls
HF: Form S/X                :      0.000u      0.000s      0.000w      1 calls
HF: Guess                   :      0.000u      0.000s      0.000w      1 calls
HF: Form G                  :      0.000u      0.000s      0.008w      8 calls
JK: D                       :      0.000u      0.000s      0.000w      8 calls
JK: USO2AO                  :      0.000u      0.000s      0.000w      8 calls
JK: JK                      :      0.000u      0.000s      0.007w      8 calls
JK: J                       :      0.000u      0.000s      0.001w      8 calls
JK: J1                      :      0.000u      0.000s      0.000w     16 calls
JK: J2                      :      0.000u      0.000s      0.000w     16 calls
JK: K                       :      0.000u      0.000s      0.006w      8 calls
JK: K1                      :      0.000u      0.000s      0.005w     16 calls
JK: K2                      :      0.000u      0.000s      0.001w     16 calls
JK: AO2USO                  :      0.000u      0.000s      0.000w      8 calls
HF: Form F                  :      0.000u      0.000s      0.000w      8 calls
HF: DIIS                    :      0.017u      0.000s      0.002w      8 calls
DIISManager::add_entry      :      0.000u      0.000s      0.000w      8 calls
DIISManager::extrapolate    :      0.017u      0.000s      0.001w      7 calls
bMatrix setup               :      0.000u      0.000s      0.000w      7 calls
bMatrix pseudoinverse       :      0.017u      0.000s      0.000w      7 calls
New vector                  :      0.000u      0.000s      0.000w      7 calls
HF: Form C                  :      0.000u      0.000s      0.001w      8 calls
HF: Form D                  :      0.000u      0.000s      0.000w      8 calls

-----------------------------------------------------------
JK: (A|mn)                  :      0.000u      0.000s      0.008w      1 calls
JK: (A|Q)^-1/2              :      0.067u      0.017s      0.042w      1 calls
JK: (Q|mn)                  :      0.000u      0.000s      0.001w      1 calls
HF: Form H                  :      0.000u      0.000s      0.001w      1 calls
HF: Form S/X                :      0.000u      0.000s      0.000w      1 calls
HF: Guess                   :      0.000u      0.000s      0.000w      1 calls
HF: Form G                  :      0.000u      0.000s      0.008w      8 calls
| JK: D                     :      0.000u      0.000s      0.000w      8 calls
| JK: USO2AO                :      0.000u      0.000s      0.000w      8 calls
| JK: JK                    :      0.000u      0.000s      0.007w      8 calls
| | JK: J                   :      0.000u      0.000s      0.001w      8 calls
| | | JK: J1                :      0.000u      0.000s      0.000w     16 calls
| | | JK: J2                :      0.000u      0.000s      0.000w     16 calls
| | JK: K                   :      0.000u      0.000s      0.006w      8 calls
| | | JK: K1                :      0.000u      0.000s      0.005w     16 calls
| | | JK: K2                :      0.000u      0.000s      0.001w     16 calls
| JK: AO2USO                :      0.000u      0.000s      0.000w      8 calls
HF: Form F                  :      0.000u      0.000s      0.000w      8 calls
HF: DIIS                    :      0.017u      0.000s      0.002w      8 calls
| DIISManager::add_entry    :      0.000u      0.000s      0.000w      8 calls
| DIISManager::extrapolate  :      0.017u      0.000s      0.001w      7 calls
| | bMatrix setup           :      0.000u      0.000s      0.000w      7 calls
| | bMatrix pseudoinverse   :      0.017u      0.000s      0.000w      7 calls
| | New vector              :      0.000u      0.000s      0.000w      7 calls
HF: Form C                  :      0.000u      0.000s      0.001w      8 calls
HF: Form D                  :      0.000u      0.000s      0.000w      8 calls

***********************************************************

Host: yeti

Timers On : Thu Feb  1 10:44:48 2018
Timers Off: Thu Feb  1 10:44:49 2018

Wall Time:        0.53 seconds

JK: (A|mn)                  :      0.017u      0.000s      0.008w      1 calls
JK: (A|Q)^-1/2              :      0.067u      0.000s      0.041w      1 calls
JK: (Q|mn)                  :      0.000u      0.000s      0.001w      1 calls
HF: Form H                  :      0.000u      0.000s      0.001w      1 calls
HF: Form S/X                :      0.000u      0.000s      0.000w      1 calls
HF: Guess                   :      0.000u      0.000s      0.000w      1 calls
HF: Form G                  :      0.017u      0.000s      0.007w      8 calls
JK: D                       :      0.000u      0.000s      0.000w      8 calls
JK: USO2AO                  :      0.000u      0.000s      0.000w      8 calls
JK: JK                      :      0.017u      0.000s      0.006w      8 calls
JK: J                       :      0.000u      0.000s      0.000w      8 calls
JK: J1                      :      0.000u      0.000s      0.000w     16 calls
JK: J2                      :      0.000u      0.000s      0.000w     16 calls
JK: K                       :      0.017u      0.000s      0.006w      8 calls
JK: K1                      :      0.017u      0.000s      0.005w     16 calls
JK: K2                      :      0.000u      0.000s      0.001w     16 calls
JK: AO2USO                  :      0.000u      0.000s      0.000w      8 calls
HF: Form F                  :      0.000u      0.000s      0.000w      8 calls
HF: DIIS                    :      0.000u      0.000s      0.001w      8 calls
DIISManager::add_entry      :      0.000u      0.000s      0.000w      8 calls
DIISManager::extrapolate    :      0.000u      0.000s      0.001w      7 calls
bMatrix setup               :      0.000u      0.000s      0.000w      7 calls
bMatrix pseudoinverse       :      0.000u      0.000s      0.000w      7 calls
New vector                  :      0.000u      0.000s      0.000w      7 calls
HF: Form C                  :      0.000u      0.000s      0.001w      8 calls
HF: Form D                  :      0.000u      0.000s      0.000w      8 calls

-----------------------------------------------------------
JK: (A|mn)                  :      0.017u      0.000s      0.008w      1 calls
JK: (A|Q)^-1/2              :      0.067u      0.000s      0.041w      1 calls
JK: (Q|mn)                  :      0.000u      0.000s      0.001w      1 calls
HF: Form H                  :      0.000u      0.000s      0.001w      1 calls
HF: Form S/X                :      0.000u      0.000s      0.000w      1 calls
HF: Guess                   :      0.000u      0.000s      0.000w      1 calls
HF: Form G                  :      0.017u      0.000s      0.007w      8 calls
| JK: D                     :      0.000u      0.000s      0.000w      8 calls
| JK: USO2AO                :      0.000u      0.000s      0.000w      8 calls
| JK: JK                    :      0.017u      0.000s      0.006w      8 calls
| | JK: J                   :      0.000u      0.000s      0.000w      8 calls
| | | JK: J1                :      0.000u      0.000s      0.000w     16 calls
| | | JK: J2                :      0.000u      0.000s      0.000w     16 calls
| | JK: K                   :      0.017u      0.000s      0.006w      8 calls
| | | JK: K1                :      0.017u      0.000s      0.005w     16 calls
| | | JK: K2                :      0.000u      0.000s      0.001w     16 calls
| JK: AO2USO                :      0.000u      0.000s      0.000w      8 calls
HF: Form F                  :      0.000u      0.000s      0.000w      8 calls
HF: DIIS                    :      0.000u      0.000s      0.001w      8 calls
| DIISManager::add_entry    :      0.000u      0.000s      0.000w      8 calls
| DIISManager::extrapolate  :      0.000u      0.000s      0.001w      7 calls
| | bMatrix setup           :      0.000u      0.000s      0.000w      7 calls
| | bMatrix pseudoinverse   :      0.000u      0.000s      0.000w      7 calls
| | New vector              :      0.000u      0.000s      0.000w      7 calls
HF: Form C                  :      0.000u      0.000s      0.001w      8 calls
HF: Form D                  :      0.000u      0.000s      0.000w      8 calls

***********************************************************

Host: yeti

Timers On : Thu Feb  1 10:46:48 2018
Timers Off: Thu Feb  1 10:46:49 2018

Wall Time:        0.54 seconds

JK: (A|mn)                  :      0.017u      0.000s      0.008w      1 calls
JK: (A|Q)^-1/2              :      0.067u      0.000s      0.043w      1 calls
JK: (Q|mn)                  :      0.000u      0.000s      0.001w      1 calls
HF: Form H                  :      0.000u      0.000s      0.001w      1 calls
HF: Form S/X                :      0.000u      0.000s      0.000w      1 calls
HF: Guess                   :      0.000u      0.000s      0.000w      1 calls
HF: Form G                  :      0.033u      0.000s      0.008w      8 calls
JK: D                       :      0.000u      0.000s      0.000w      8 calls
JK: USO2AO                  :      0.017u      0.000s      0.000w      8 calls
JK: JK                      :      0.017u      0.000s      0.007w      8 calls
JK: J                       :      0.000u      0.000s      0.001w      8 calls
JK: J1                      :      0.000u      0.000s      0.000w     16 calls
JK: J2                      :      0.000u      0.000s      0.000w     16 calls
JK: K                       :      0.000u      0.000s      0.006w      8 calls
JK: K1                      :      0.000u      0.000s      0.005w     16 calls
JK: K2                      :      0.000u      0.000s      0.001w     16 calls
JK: AO2USO                  :      0.000u      0.000s      0.000w      8 calls
HF: Form F                  :      0.000u      0.000s      0.000w      8 calls
HF: DIIS                    :      0.000u      0.000s      0.002w      8 calls
DIISManager::add_entry      :      0.000u      0.000s      0.000w      8 calls
DIISManager::extrapolate    :      0.000u      0.000s      0.001w      7 calls
bMatrix setup               :      0.000u      0.000s      0.000w      7 calls
bMatrix pseudoinverse       :      0.000u      0.000s      0.000w      7 calls
New vector                  :      0.000u      0.000s      0.000w      7 calls
HF: Form C                  :      0.000u      0.000s      0.001w      8 calls
HF: Form D                  :      0.000u      0.000s      0.000w      8 calls

-----------------------------------------------------------
JK: (A|mn)                  :      0.017u      0.000s      0.008w      1 calls
JK: (A|Q)^-1/2              :      0.067u      0.000s      0.043w      1 calls
JK: (Q|mn)                  :      0.000u      0.000s      0.001w      1 calls
HF: Form H                  :      0.000u      0.000s      0.001w      1 calls
HF: Form S/X                :      0.000u      0.000s      0.000w      1 calls
HF: Guess                   :      0.000u      0.000s      0.000w      1 calls
HF: Form G                  :      0.033u      0.000s      0.008w      8 calls
| JK: D                     :      0.000u      0.000s      0.000w      8 calls
| JK: USO2AO                :      0.017u      0.000s      0.000w      8 calls
| JK: JK                    :      0.017u      0.000s      0.007w      8 calls
| | JK: J                   :      0.000u      0.000s      0.001w      8 calls
| | | JK: J1                :      0.000u      0.000s      0.000w     16 calls
| | | JK: J2                :      0.000u      0.000s      0.000w     16 calls
| | JK: K                   :      0.000u      0.000s      0.006w      8 calls
| | | JK: K1                :      0.000u      0.000s      0.005w     16 calls
| | | JK: K2                :      0.000u      0.000s      0.001w     16 calls
| JK: AO2USO                :      0.000u      0.000s      0.000w      8 calls
HF: Form F                  :      0.000u      0.000s      0.000w      8 calls
HF: DIIS                    :      0.000u      0.000s      0.002w      8 calls
| DIISManager::add_entry    :      0.000u      0.000s      0.000w      8 calls
| DIISManager::extrapolate  :      0.000u      0.000s      0.001w      7 calls
| | bMatrix setup           :      0.000u      0.000s      0.000w      7 calls
| | bMatrix pseudoinverse   :      0.000u      0.000s      0.000w      7 calls
| | New vector              :      0.000u      0.000s      0.000w      7 calls
HF: Form C                  :      0.000u      0.000s      0.001w      8 calls
HF: Form D                  :      0.000u      0.000s      0.000w      8 calls

***********************************************************

Host: yeti

Timers On : Thu Feb  1 10:47:05 2018
Timers Off: Thu Feb  1 10:47:06 2018

Wall Time:        0.53 seconds

JK: (A|mn)                  :      0.017u      0.000s      0.008w      1 calls
JK: (A|Q)^-1/2              :      0.067u      0.000s      0.040w      1 calls
JK: (Q|mn)                  :      0.000u      0.000s      0.001w      1 calls
HF: Form H                  :      0.000u      0.000s      0.001w      1 calls
HF: Form S/X                :      0.000u      0.000s      0.000w      1 calls
HF: Guess                   :      0.000u      0.000s      0.000w      1 calls
HF: Form G                  :      0.017u      0.000s      0.008w      8 calls
JK: D                       :      0.000u      0.000s      0.000w      8 calls
JK: USO2AO                  :      0.000u      0.000s      0.000w      8 calls
JK: JK                      :      0.017u      0.000s      0.007w      8 calls
JK: J                       :      0.000u      0.000s      0.001w      8 calls
JK: J1                      :      0.000u      0.000s      0.000w     16 calls
JK: J2                      :      0.000u      0.000s      0.000w     16 calls
JK: K                       :      0.017u      0.000s      0.006w      8 calls
JK: K1                      :      0.017u      0.000s      0.005w     16 calls
JK: K2                      :      0.000u      0.000s      0.001w     16 calls
JK: AO2USO                  :      0.000u      0.000s      0.000w      8 calls
HF: Form F                  :      0.000u      0.000s      0.000w      8 calls
HF: DIIS                    :      0.000u      0.000s      0.001w      8 calls
DIISManager::add_entry      :      0.000u      0.000s      0.000w      8 calls
DIISManager::extrapolate    :      0.000u      0.000s      0.001w      7 calls
bMatrix setup               :      0.000u      0.000s      0.000w      7 calls
bMatrix pseudoinverse       :      0.000u      0.000s      0.000w      7 calls
New vector                  :      0.000u      0.000s      0.000w      7 calls
HF: Form C                  :      0.000u      0.000s      0.001w      8 calls
HF: Form D                  :      0.000u      0.000s      0.000w      8 calls

-----------------------------------------------------------
JK: (A|mn)                  :      0.017u      0.000s      0.008w      1 calls
JK: (A|Q)^-1/2              :      0.067u      0.000s      0.040w      1 calls
JK: (Q|mn)                  :      0.000u      0.000s      0.001w      1 calls
HF: Form H                  :      0.000u      0.000s      0.001w      1 calls
HF: Form S/X                :      0.000u      0.000s      0.000w      1 calls
HF: Guess                   :      0.000u      0.000s      0.000w      1 calls
HF: Form G                  :      0.017u      0.000s      0.008w      8 calls
| JK: D                     :      0.000u      0.000s      0.000w      8 calls
| JK: USO2AO                :      0.000u      0.000s      0.000w      8 calls
| JK: JK                    :      0.017u      0.000s      0.007w      8 calls
| | JK: J                   :      0.000u      0.000s      0.001w      8 calls
| | | JK: J1                :      0.000u      0.000s      0.000w     16 calls
| | | JK: J2                :      0.000u      0.000s      0.000w     16 calls
| | JK: K                   :      0.017u      0.000s      0.006w      8 calls
| | | JK: K1                :      0.017u      0.000s      0.005w     16 calls
| | | JK: K2                :      0.000u      0.000s      0.001w     16 calls
| JK: AO2USO                :      0.000u      0.000s      0.000w      8 calls
HF: Form F                  :      0.000u      0.000s      0.000w      8 calls
HF: DIIS                    :      0.000u      0.000s      0.001w      8 calls
| DIISManager::add_entry    :      0.000u      0.000s      0.000w      8 calls
| DIISManager::extrapolate  :      0.000u      0.000s      0.001w      7 calls
| | bMatrix setup           :      0.000u      0.000s      0.000w      7 calls
| | bMatrix pseudoinverse   :      0.000u      0.000s      0.000w      7 calls
| | New vector              :      0.000u      0.000s      0.000w      7 calls
HF: Form C                  :      0.000u      0.000s      0.001w      8 calls
HF: Form D                  :      0.000u      0.000s      0.000w      8 calls

***********************************************************

Host: yeti

Timers On : Thu Feb  1 10:48:55 2018
Timers Off: Thu Feb  1 10:48:55 2018

Wall Time:        0.64 seconds

JK: (A|mn)                  :      0.017u      0.000s      0.008w      1 calls
JK: (A|Q)^-1/2              :      0.067u      0.000s      0.042w      1 calls
JK: (Q|mn)                  :      0.000u      0.000s      0.001w      1 calls
HF: Form H                  :      0.000u      0.000s      0.001w      1 calls
HF: Form S/X                :      0.000u      0.000s      0.000w      1 calls
HF: Guess                   :      0.000u      0.000s      0.000w      1 calls
HF: Form G                  :      0.017u      0.000s      0.008w      8 calls
JK: D                       :      0.000u      0.000s      0.000w      8 calls
JK: USO2AO                  :      0.000u      0.000s      0.000w      8 calls
JK: JK                      :      0.017u      0.000s      0.007w      8 calls
JK: J                       :      0.000u      0.000s      0.001w      8 calls
JK: J1                      :      0.000u      0.000s      0.000w     16 calls
JK: J2                      :      0.000u      0.000s      0.000w     16 calls
JK: K                       :      0.017u      0.000s      0.006w      8 calls
JK: K1                      :      0.017u      0.000s      0.005w     16 calls
JK: K2                      :      0.000u      0.000s      0.001w     16 calls
JK: AO2USO                  :      0.000u      0.000s      0.000w      8 calls
HF: Form F                  :      0.000u      0.000s      0.000w      8 calls
HF: DIIS                    :      0.000u      0.000s      0.002w      8 calls
DIISManager::add_entry      :      0.000u      0.000s      0.000w      8 calls
DIISManager::extrapolate    :      0.000u      0.000s      0.001w      7 calls
bMatrix setup               :      0.000u      0.000s      0.000w      7 calls
bMatrix pseudoinverse       :      0.000u      0.000s      0.000w      7 calls
New vector                  :      0.000u      0.000s      0.000w      7 calls
HF: Form C                  :      0.000u      0.000s      0.001w      8 calls
HF: Form D                  :      0.000u      0.000s      0.000w      8 calls

-----------------------------------------------------------
JK: (A|mn)                  :      0.017u      0.000s      0.008w      1 calls
JK: (A|Q)^-1/2              :      0.067u      0.000s      0.042w      1 calls
JK: (Q|mn)                  :      0.000u      0.000s      0.001w      1 calls
HF: Form H                  :      0.000u      0.000s      0.001w      1 calls
HF: Form S/X                :      0.000u      0.000s      0.000w      1 calls
HF: Guess                   :      0.000u      0.000s      0.000w      1 calls
HF: Form G                  :      0.017u      0.000s      0.008w      8 calls
| JK: D                     :      0.000u      0.000s      0.000w      8 calls
| JK: USO2AO                :      0.000u      0.000s      0.000w      8 calls
| JK: JK                    :      0.017u      0.000s      0.007w      8 calls
| | JK: J                   :      0.000u      0.000s      0.001w      8 calls
| | | JK: J1                :      0.000u      0.000s      0.000w     16 calls
| | | JK: J2                :      0.000u      0.000s      0.000w     16 calls
| | JK: K                   :      0.017u      0.000s      0.006w      8 calls
| | | JK: K1                :      0.017u      0.000s      0.005w     16 calls
| | | JK: K2                :      0.000u      0.000s      0.001w     16 calls
| JK: AO2USO                :      0.000u      0.000s      0.000w      8 calls
HF: Form F                  :      0.000u      0.000s      0.000w      8 calls
HF: DIIS                    :      0.000u      0.000s      0.002w      8 calls
| DIISManager::add_entry    :      0.000u      0.000s      0.000w      8 calls
| DIISManager::extrapolate  :      0.000u      0.000s      0.001w      7 calls
| | bMatrix setup           :      0.000u      0.000s      0.000w      7 calls
| | bMatrix pseudoinverse   :      0.000u      0.000s      0.000w      7 calls
| | New vector              :      0.000u      0.000s      0.000w      7 calls
HF: Form C                  :      0.000u      0.000s      0.001w      8 calls
HF: Form D                  :      0.000u      0.000s      0.000w      8 calls

***********************************************************

Host: yeti

Timers On : Thu Feb  1 11:21:10 2018
Timers Off: Thu Feb  1 11:21:11 2018

Wall Time:        0.40 seconds


-----------------------------------------------------------

***********************************************************

Host: yeti

Timers On : Thu Feb  1 11:21:36 2018
Timers Off: Thu Feb  1 11:21:37 2018

Wall Time:        0.40 seconds


-----------------------------------------------------------

***********************************************************

Host: yeti

Timers On : Thu Feb  1 11:21:58 2018
Timers Off: Thu Feb  1 11:21:58 2018

Wall Time:        0.38 seconds


-----------------------------------------------------------

***********************************************************

Host: yeti

Timers On : Thu Feb  1 11:23:26 2018
Timers Off: Thu Feb  1 11:23:27 2018

Wall Time:        0.40 seconds


-----------------------------------------------------------

***********************************************************

Host: yeti

Timers On : Thu Feb  1 11:27:25 2018
Timers Off: Thu Feb  1 11:27:25 2018

Wall Time:        0.50 seconds


-----------------------------------------------------------

***********************************************************

Host: yeti

Timers On : Thu Feb  1 12:18:31 2018
Timers Off: Thu Feb  1 12:18:32 2018

Wall Time:        0.43 seconds


-----------------------------------------------------------

***********************************************************

Host: yeti

Timers On : Thu Feb  1 12:18:59 2018
Timers Off: Thu Feb  1 12:19:00 2018

Wall Time:        0.44 seconds


-----------------------------------------------------------

***********************************************************

Host: yeti

Timers On : Thu Feb  1 12:19:59 2018
Timers Off: Thu Feb  1 12:20:00 2018

Wall Time:        0.70 seconds

JK: (A|mn)                  :      0.017u      0.000s      0.008w      1 calls
JK: (A|Q)^-1/2              :      0.067u      0.000s      0.043w      1 calls
JK: (Q|mn)                  :      0.000u      0.000s      0.001w      1 calls
HF: Form H                  :      0.000u      0.000s      0.001w      1 calls
HF: Form S/X                :      0.000u      0.000s      0.000w      1 calls
HF: Guess                   :      0.000u      0.000s      0.000w      1 calls
HF: Form G                  :      0.017u      0.000s      0.008w      8 calls
JK: D                       :      0.000u      0.000s      0.000w      8 calls
JK: USO2AO                  :      0.000u      0.000s      0.000w      8 calls
JK: JK                      :      0.017u      0.000s      0.007w      8 calls
JK: J                       :      0.000u      0.000s      0.001w      8 calls
JK: J1                      :      0.000u      0.000s      0.000w     16 calls
JK: J2                      :      0.000u      0.000s      0.000w     16 calls
JK: K                       :      0.017u      0.000s      0.006w      8 calls
JK: K1                      :      0.017u      0.000s      0.005w     16 calls
JK: K2                      :      0.000u      0.000s      0.001w     16 calls
JK: AO2USO                  :      0.000u      0.000s      0.000w      8 calls
HF: Form F                  :      0.000u      0.000s      0.000w      8 calls
HF: DIIS                    :      0.000u      0.000s      0.002w      8 calls
DIISManager::add_entry      :      0.000u      0.000s      0.000w      8 calls
DIISManager::extrapolate    :      0.000u      0.000s      0.001w      7 calls
bMatrix setup               :      0.000u      0.000s      0.000w      7 calls
bMatrix pseudoinverse       :      0.000u      0.000s      0.000w      7 calls
New vector                  :      0.000u      0.000s      0.000w      7 calls
HF: Form C                  :      0.000u      0.000s      0.001w      8 calls
HF: Form D                  :      0.000u      0.000s      0.000w      8 calls

-----------------------------------------------------------
JK: (A|mn)                  :      0.017u      0.000s      0.008w      1 calls
JK: (A|Q)^-1/2              :      0.067u      0.000s      0.043w      1 calls
JK: (Q|mn)                  :      0.000u      0.000s      0.001w      1 calls
HF: Form H                  :      0.000u      0.000s      0.001w      1 calls
HF: Form S/X                :      0.000u      0.000s      0.000w      1 calls
HF: Guess                   :      0.000u      0.000s      0.000w      1 calls
HF: Form G                  :      0.017u      0.000s      0.008w      8 calls
| JK: D                     :      0.000u      0.000s      0.000w      8 calls
| JK: USO2AO                :      0.000u      0.000s      0.000w      8 calls
| JK: JK                    :      0.017u      0.000s      0.007w      8 calls
| | JK: J                   :      0.000u      0.000s      0.001w      8 calls
| | | JK: J1                :      0.000u      0.000s      0.000w     16 calls
| | | JK: J2                :      0.000u      0.000s      0.000w     16 calls
| | JK: K                   :      0.017u      0.000s      0.006w      8 calls
| | | JK: K1                :      0.017u      0.000s      0.005w     16 calls
| | | JK: K2                :      0.000u      0.000s      0.001w     16 calls
| JK: AO2USO                :      0.000u      0.000s      0.000w      8 calls
HF: Form F                  :      0.000u      0.000s      0.000w      8 calls
HF: DIIS                    :      0.000u      0.000s      0.002w      8 calls
| DIISManager::add_entry    :      0.000u      0.000s      0.000w      8 calls
| DIISManager::extrapolate  :      0.000u      0.000s      0.001w      7 calls
| | bMatrix setup           :      0.000u      0.000s      0.000w      7 calls
| | bMatrix pseudoinverse   :      0.000u      0.000s      0.000w      7 calls
| | New vector              :      0.000u      0.000s      0.000w      7 calls
HF: Form C                  :      0.000u      0.000s      0.001w      8 calls
HF: Form D                  :      0.000u      0.000s      0.000w      8 calls

***********************************************************

Host: yeti

Timers On : Tue Feb  6 14:32:15 2018
Timers Off: Tue Feb  6 14:32:20 2018

Wall Time:        4.51 seconds

JK: (A|mn)                  :      0.017u      0.000s      0.025w      1 calls
JK: (A|Q)^-1/2              :      0.083u      0.017s      0.146w      1 calls
JK: (Q|mn)                  :      0.000u      0.000s      0.001w      1 calls
HF: Form H                  :      0.000u      0.000s      0.058w      1 calls
HF: Form S/X                :      0.000u      0.000s      0.000w      1 calls
HF: Guess                   :      0.000u      0.000s      0.000w      1 calls
HF: Form G                  :      0.033u      0.000s      0.012w      8 calls
JK: D                       :      0.000u      0.000s      0.000w      8 calls
JK: USO2AO                  :      0.000u      0.000s      0.001w      8 calls
JK: JK                      :      0.033u      0.000s      0.011w      8 calls
JK: J                       :      0.000u      0.000s      0.001w      8 calls
JK: J1                      :      0.000u      0.000s      0.000w     16 calls
JK: J2                      :      0.000u      0.000s      0.000w     16 calls
JK: K                       :      0.033u      0.000s      0.009w      8 calls
JK: K1                      :      0.000u      0.000s      0.008w     16 calls
JK: K2                      :      0.033u      0.000s      0.002w     16 calls
JK: AO2USO                  :      0.000u      0.000s      0.000w      8 calls
HF: Form F                  :      0.000u      0.000s      0.000w      8 calls
HF: DIIS                    :      0.000u      0.000s      0.002w      8 calls
DIISManager::add_entry      :      0.000u      0.000s      0.001w      8 calls
DIISManager::extrapolate    :      0.000u      0.000s      0.001w      7 calls
bMatrix setup               :      0.000u      0.000s      0.000w      7 calls
bMatrix pseudoinverse       :      0.000u      0.000s      0.000w      7 calls
New vector                  :      0.000u      0.000s      0.000w      7 calls
HF: Form C                  :      0.000u      0.000s      0.001w      8 calls
HF: Form D                  :      0.000u      0.000s      0.000w      8 calls

-----------------------------------------------------------
JK: (A|mn)                  :      0.017u      0.000s      0.025w      1 calls
JK: (A|Q)^-1/2              :      0.083u      0.017s      0.146w      1 calls
JK: (Q|mn)                  :      0.000u      0.000s      0.001w      1 calls
HF: Form H                  :      0.000u      0.000s      0.058w      1 calls
HF: Form S/X                :      0.000u      0.000s      0.000w      1 calls
HF: Guess                   :      0.000u      0.000s      0.000w      1 calls
HF: Form G                  :      0.033u      0.000s      0.012w      8 calls
| JK: D                     :      0.000u      0.000s      0.000w      8 calls
| JK: USO2AO                :      0.000u      0.000s      0.001w      8 calls
| JK: JK                    :      0.033u      0.000s      0.011w      8 calls
| | JK: J                   :      0.000u      0.000s      0.001w      8 calls
| | | JK: J1                :      0.000u      0.000s      0.000w     16 calls
| | | JK: J2                :      0.000u      0.000s      0.000w     16 calls
| | JK: K                   :      0.033u      0.000s      0.009w      8 calls
| | | JK: K1                :      0.000u      0.000s      0.008w     16 calls
| | | JK: K2                :      0.033u      0.000s      0.002w     16 calls
| JK: AO2USO                :      0.000u      0.000s      0.000w      8 calls
HF: Form F                  :      0.000u      0.000s      0.000w      8 calls
HF: DIIS                    :      0.000u      0.000s      0.002w      8 calls
| DIISManager::add_entry    :      0.000u      0.000s      0.001w      8 calls
| DIISManager::extrapolate  :      0.000u      0.000s      0.001w      7 calls
| | bMatrix setup           :      0.000u      0.000s      0.000w      7 calls
| | bMatrix pseudoinverse   :      0.000u      0.000s      0.000w      7 calls
| | New vector              :      0.000u      0.000s      0.000w      7 calls
HF: Form C                  :      0.000u      0.000s      0.001w      8 calls
HF: Form D                  :      0.000u      0.000s      0.000w      8 calls

***********************************************************

Host: yeti

Timers On : Tue Feb  6 14:32:47 2018
Timers Off: Tue Feb  6 14:32:48 2018

Wall Time:        0.71 seconds

JK: (A|mn)                  :      0.000u      0.000s      0.009w      1 calls
JK: (A|Q)^-1/2              :      0.067u      0.000s      0.044w      1 calls
JK: (Q|mn)                  :      0.000u      0.000s      0.001w      1 calls
HF: Form H                  :      0.000u      0.017s      0.001w      1 calls
HF: Form S/X                :      0.000u      0.000s      0.000w      1 calls
HF: Guess                   :      0.000u      0.000s      0.000w      1 calls
HF: Form G                  :      0.017u      0.000s      0.008w      8 calls
JK: D                       :      0.000u      0.000s      0.000w      8 calls
JK: USO2AO                  :      0.000u      0.000s      0.000w      8 calls
JK: JK                      :      0.017u      0.000s      0.007w      8 calls
JK: J                       :      0.000u      0.000s      0.001w      8 calls
JK: J1                      :      0.000u      0.000s      0.000w     16 calls
JK: J2                      :      0.000u      0.000s      0.000w     16 calls
JK: K                       :      0.017u      0.000s      0.006w      8 calls
JK: K1                      :      0.000u      0.000s      0.005w     16 calls
JK: K2                      :      0.017u      0.000s      0.001w     16 calls
JK: AO2USO                  :      0.000u      0.000s      0.000w      8 calls
HF: Form F                  :      0.000u      0.000s      0.000w      8 calls
HF: DIIS                    :      0.000u      0.000s      0.002w      8 calls
DIISManager::add_entry      :      0.000u      0.000s      0.000w      8 calls
DIISManager::extrapolate    :      0.000u      0.000s      0.001w      7 calls
bMatrix setup               :      0.000u      0.000s      0.000w      7 calls
bMatrix pseudoinverse       :      0.000u      0.000s      0.000w      7 calls
New vector                  :      0.000u      0.000s      0.000w      7 calls
HF: Form C                  :      0.000u      0.000s      0.001w      8 calls
HF: Form D                  :      0.000u      0.000s      0.000w      8 calls

-----------------------------------------------------------
JK: (A|mn)                  :      0.000u      0.000s      0.009w      1 calls
JK: (A|Q)^-1/2              :      0.067u      0.000s      0.044w      1 calls
JK: (Q|mn)                  :      0.000u      0.000s      0.001w      1 calls
HF: Form H                  :      0.000u      0.017s      0.001w      1 calls
HF: Form S/X                :      0.000u      0.000s      0.000w      1 calls
HF: Guess                   :      0.000u      0.000s      0.000w      1 calls
HF: Form G                  :      0.017u      0.000s      0.008w      8 calls
| JK: D                     :      0.000u      0.000s      0.000w      8 calls
| JK: USO2AO                :      0.000u      0.000s      0.000w      8 calls
| JK: JK                    :      0.017u      0.000s      0.007w      8 calls
| | JK: J                   :      0.000u      0.000s      0.001w      8 calls
| | | JK: J1                :      0.000u      0.000s      0.000w     16 calls
| | | JK: J2                :      0.000u      0.000s      0.000w     16 calls
| | JK: K                   :      0.017u      0.000s      0.006w      8 calls
| | | JK: K1                :      0.000u      0.000s      0.005w     16 calls
| | | JK: K2                :      0.017u      0.000s      0.001w     16 calls
| JK: AO2USO                :      0.000u      0.000s      0.000w      8 calls
HF: Form F                  :      0.000u      0.000s      0.000w      8 calls
HF: DIIS                    :      0.000u      0.000s      0.002w      8 calls
| DIISManager::add_entry    :      0.000u      0.000s      0.000w      8 calls
| DIISManager::extrapolate  :      0.000u      0.000s      0.001w      7 calls
| | bMatrix setup           :      0.000u      0.000s      0.000w      7 calls
| | bMatrix pseudoinverse   :      0.000u      0.000s      0.000w      7 calls
| | New vector              :      0.000u      0.000s      0.000w      7 calls
HF: Form C                  :      0.000u      0.000s      0.001w      8 calls
HF: Form D                  :      0.000u      0.000s      0.000w      8 calls

***********************************************************

Host: yeti

Timers On : Tue Feb  6 14:34:21 2018
Timers Off: Tue Feb  6 14:34:22 2018

Wall Time:        0.67 seconds

JK: (A|mn)                  :      0.017u      0.000s      0.007w      1 calls
JK: (A|Q)^-1/2              :      0.050u      0.000s      0.039w      1 calls
JK: (Q|mn)                  :      0.017u      0.000s      0.000w      1 calls
HF: Form H                  :      0.000u      0.000s      0.001w      1 calls
HF: Form S/X                :      0.000u      0.000s      0.000w      1 calls
HF: Guess                   :      0.000u      0.000s      0.000w      1 calls
HF: Form G                  :      0.000u      0.000s      0.007w      8 calls
JK: D                       :      0.000u      0.000s      0.000w      8 calls
JK: USO2AO                  :      0.000u      0.000s      0.000w      8 calls
JK: JK                      :      0.000u      0.000s      0.006w      8 calls
JK: J                       :      0.000u      0.000s      0.001w      8 calls
JK: J1                      :      0.000u      0.000s      0.000w     16 calls
JK: J2                      :      0.000u      0.000s      0.000w     16 calls
JK: K                       :      0.000u      0.000s      0.005w      8 calls
JK: K1                      :      0.000u      0.000s      0.004w     16 calls
JK: K2                      :      0.000u      0.000s      0.001w     16 calls
JK: AO2USO                  :      0.000u      0.000s      0.000w      8 calls
HF: Form F                  :      0.000u      0.000s      0.000w      8 calls
HF: DIIS                    :      0.000u      0.000s      0.001w      8 calls
DIISManager::add_entry      :      0.000u      0.000s      0.000w      8 calls
DIISManager::extrapolate    :      0.000u      0.000s      0.001w      7 calls
bMatrix setup               :      0.000u      0.000s      0.000w      7 calls
bMatrix pseudoinverse       :      0.000u      0.000s      0.000w      7 calls
New vector                  :      0.000u      0.000s      0.000w      7 calls
HF: Form C                  :      0.000u      0.000s      0.001w      8 calls
HF: Form D                  :      0.000u      0.000s      0.000w      8 calls

-----------------------------------------------------------
JK: (A|mn)                  :      0.017u      0.000s      0.007w      1 calls
JK: (A|Q)^-1/2              :      0.050u      0.000s      0.039w      1 calls
JK: (Q|mn)                  :      0.017u      0.000s      0.000w      1 calls
HF: Form H                  :      0.000u      0.000s      0.001w      1 calls
HF: Form S/X                :      0.000u      0.000s      0.000w      1 calls
HF: Guess                   :      0.000u      0.000s      0.000w      1 calls
HF: Form G                  :      0.000u      0.000s      0.007w      8 calls
| JK: D                     :      0.000u      0.000s      0.000w      8 calls
| JK: USO2AO                :      0.000u      0.000s      0.000w      8 calls
| JK: JK                    :      0.000u      0.000s      0.006w      8 calls
| | JK: J                   :      0.000u      0.000s      0.001w      8 calls
| | | JK: J1                :      0.000u      0.000s      0.000w     16 calls
| | | JK: J2                :      0.000u      0.000s      0.000w     16 calls
| | JK: K                   :      0.000u      0.000s      0.005w      8 calls
| | | JK: K1                :      0.000u      0.000s      0.004w     16 calls
| | | JK: K2                :      0.000u      0.000s      0.001w     16 calls
| JK: AO2USO                :      0.000u      0.000s      0.000w      8 calls
HF: Form F                  :      0.000u      0.000s      0.000w      8 calls
HF: DIIS                    :      0.000u      0.000s      0.001w      8 calls
| DIISManager::add_entry    :      0.000u      0.000s      0.000w      8 calls
| DIISManager::extrapolate  :      0.000u      0.000s      0.001w      7 calls
| | bMatrix setup           :      0.000u      0.000s      0.000w      7 calls
| | bMatrix pseudoinverse   :      0.000u      0.000s      0.000w      7 calls
| | New vector              :      0.000u      0.000s      0.000w      7 calls
HF: Form C                  :      0.000u      0.000s      0.001w      8 calls
HF: Form D                  :      0.000u      0.000s      0.000w      8 calls

***********************************************************

Host: yeti

Timers On : Tue Feb  6 14:34:45 2018
Timers Off: Tue Feb  6 14:34:46 2018

Wall Time:        0.69 seconds

JK: (A|mn)                  :      0.017u      0.000s      0.008w      1 calls
JK: (A|Q)^-1/2              :      0.067u      0.000s      0.042w      1 calls
JK: (Q|mn)                  :      0.000u      0.000s      0.001w      1 calls
HF: Form H                  :      0.000u      0.000s      0.002w      1 calls
HF: Form S/X                :      0.000u      0.000s      0.000w      1 calls
HF: Guess                   :      0.000u      0.000s      0.000w      1 calls
HF: Form G                  :      0.017u      0.000s      0.008w      8 calls
JK: D                       :      0.000u      0.000s      0.000w      8 calls
JK: USO2AO                  :      0.000u      0.000s      0.000w      8 calls
JK: JK                      :      0.017u      0.000s      0.007w      8 calls
JK: J                       :      0.000u      0.000s      0.001w      8 calls
JK: J1                      :      0.000u      0.000s      0.000w     16 calls
JK: J2                      :      0.000u      0.000s      0.000w     16 calls
JK: K                       :      0.017u      0.000s      0.006w      8 calls
JK: K1                      :      0.017u      0.000s      0.005w     16 calls
JK: K2                      :      0.000u      0.000s      0.001w     16 calls
JK: AO2USO                  :      0.000u      0.000s      0.000w      8 calls
HF: Form F                  :      0.000u      0.000s      0.000w      8 calls
HF: DIIS                    :      0.000u      0.000s      0.002w      8 calls
DIISManager::add_entry      :      0.000u      0.000s      0.000w      8 calls
DIISManager::extrapolate    :      0.000u      0.000s      0.001w      7 calls
bMatrix setup               :      0.000u      0.000s      0.000w      7 calls
bMatrix pseudoinverse       :      0.000u      0.000s      0.000w      7 calls
New vector                  :      0.000u      0.000s      0.000w      7 calls
HF: Form C                  :      0.000u      0.000s      0.001w      8 calls
HF: Form D                  :      0.000u      0.000s      0.000w      8 calls

-----------------------------------------------------------
JK: (A|mn)                  :      0.017u      0.000s      0.008w      1 calls
JK: (A|Q)^-1/2              :      0.067u      0.000s      0.042w      1 calls
JK: (Q|mn)                  :      0.000u      0.000s      0.001w      1 calls
HF: Form H                  :      0.000u      0.000s      0.002w      1 calls
HF: Form S/X                :      0.000u      0.000s      0.000w      1 calls
HF: Guess                   :      0.000u      0.000s      0.000w      1 calls
HF: Form G                  :      0.017u      0.000s      0.008w      8 calls
| JK: D                     :      0.000u      0.000s      0.000w      8 calls
| JK: USO2AO                :      0.000u      0.000s      0.000w      8 calls
| JK: JK                    :      0.017u      0.000s      0.007w      8 calls
| | JK: J                   :      0.000u      0.000s      0.001w      8 calls
| | | JK: J1                :      0.000u      0.000s      0.000w     16 calls
| | | JK: J2                :      0.000u      0.000s      0.000w     16 calls
| | JK: K                   :      0.017u      0.000s      0.006w      8 calls
| | | JK: K1                :      0.017u      0.000s      0.005w     16 calls
| | | JK: K2                :      0.000u      0.000s      0.001w     16 calls
| JK: AO2USO                :      0.000u      0.000s      0.000w      8 calls
HF: Form F                  :      0.000u      0.000s      0.000w      8 calls
HF: DIIS                    :      0.000u      0.000s      0.002w      8 calls
| DIISManager::add_entry    :      0.000u      0.000s      0.000w      8 calls
| DIISManager::extrapolate  :      0.000u      0.000s      0.001w      7 calls
| | bMatrix setup           :      0.000u      0.000s      0.000w      7 calls
| | bMatrix pseudoinverse   :      0.000u      0.000s      0.000w      7 calls
| | New vector              :      0.000u      0.000s      0.000w      7 calls
HF: Form C                  :      0.000u      0.000s      0.001w      8 calls
HF: Form D                  :      0.000u      0.000s      0.000w      8 calls

***********************************************************

Host: yeti

Timers On : Tue Feb  6 14:37:36 2018
Timers Off: Tue Feb  6 14:37:36 2018

Wall Time:        0.11 seconds


-----------------------------------------------------------

***********************************************************

Host: yeti

Timers On : Tue Feb  6 14:38:37 2018
Timers Off: Tue Feb  6 14:38:38 2018

Wall Time:        0.12 seconds


-----------------------------------------------------------

***********************************************************

Host: yeti

Timers On : Tue Feb  6 14:41:45 2018
Timers Off: Tue Feb  6 14:41:45 2018

Wall Time:        0.12 seconds


-----------------------------------------------------------

***********************************************************

Host: yeti

Timers On : Tue Feb  6 14:42:15 2018
Timers Off: Tue Feb  6 14:42:15 2018

Wall Time:        0.12 seconds


-----------------------------------------------------------

***********************************************************

Host: yeti

Timers On : Tue Feb  6 14:57:05 2018
Timers Off: Tue Feb  6 14:57:05 2018

Wall Time:        0.12 seconds


-----------------------------------------------------------

***********************************************************

Host: yeti

Timers On : Tue Feb  6 15:01:17 2018
Timers Off: Tue Feb  6 15:01:17 2018

Wall Time:        0.12 seconds


-----------------------------------------------------------

***********************************************************

Host: yeti

Timers On : Wed Feb  7 09:01:50 2018
Timers Off: Wed Feb  7 09:01:52 2018

Wall Time:        1.73 seconds


-----------------------------------------------------------

***********************************************************

Host: yeti

Timers On : Wed Feb  7 09:20:09 2018
Timers Off: Wed Feb  7 09:20:10 2018

Wall Time:        0.11 seconds


-----------------------------------------------------------

***********************************************************

Host: yeti

Timers On : Wed Feb  7 09:37:47 2018
Timers Off: Wed Feb  7 09:37:47 2018

Wall Time:        0.11 seconds


-----------------------------------------------------------

***********************************************************

Host: yeti

Timers On : Wed Feb  7 09:39:15 2018
Timers Off: Wed Feb  7 09:39:16 2018

Wall Time:        0.11 seconds


-----------------------------------------------------------

***********************************************************

Host: yeti

Timers On : Wed Feb  7 09:39:45 2018
Timers Off: Wed Feb  7 09:39:45 2018

Wall Time:        0.11 seconds


-----------------------------------------------------------

***********************************************************

Host: yeti

Timers On : Wed Feb  7 09:42:03 2018
Timers Off: Wed Feb  7 09:42:03 2018

Wall Time:        0.11 seconds


-----------------------------------------------------------

***********************************************************

Host: yeti

Timers On : Wed Feb  7 09:43:47 2018
Timers Off: Wed Feb  7 09:43:48 2018

Wall Time:        0.16 seconds


-----------------------------------------------------------

***********************************************************

Host: yeti

Timers On : Wed Feb  7 10:06:58 2018
Timers Off: Wed Feb  7 10:06:58 2018

Wall Time:        0.11 seconds


-----------------------------------------------------------

***********************************************************

Host: yeti

Timers On : Wed Feb  7 10:07:42 2018
Timers Off: Wed Feb  7 10:07:43 2018

Wall Time:        0.12 seconds


-----------------------------------------------------------

***********************************************************

Host: yeti

Timers On : Wed Feb  7 10:20:23 2018
Timers Off: Wed Feb  7 10:20:24 2018

Wall Time:        0.11 seconds


-----------------------------------------------------------

***********************************************************

Host: yeti

Timers On : Wed Feb  7 10:20:59 2018
Timers Off: Wed Feb  7 10:20:59 2018

Wall Time:        0.11 seconds


-----------------------------------------------------------

***********************************************************

Host: yeti

Timers On : Wed Feb  7 10:21:21 2018
Timers Off: Wed Feb  7 10:21:21 2018

Wall Time:        0.11 seconds


-----------------------------------------------------------

***********************************************************

Host: yeti

Timers On : Wed Feb  7 10:21:38 2018
Timers Off: Wed Feb  7 10:21:38 2018

Wall Time:        0.13 seconds


-----------------------------------------------------------

***********************************************************

Host: yeti

Timers On : Wed Feb  7 10:23:17 2018
Timers Off: Wed Feb  7 10:23:17 2018

Wall Time:        0.13 seconds


-----------------------------------------------------------

***********************************************************

Host: yeti

Timers On : Wed Feb  7 10:24:20 2018
Timers Off: Wed Feb  7 10:24:20 2018

Wall Time:        0.13 seconds


-----------------------------------------------------------

***********************************************************

Host: yeti

Timers On : Thu Feb  8 12:31:41 2018
[...]

Wall Time:        0.13 seconds


-----------------------------------------------------------

***********************************************************

Host: yeti

Timers On : Mon Apr  9 10:11:29 2018
Timers Off: Mon Apr  9 10:11:29 2018

Wall Time:        0.12 seconds


-----------------------------------------------------------

***********************************************************

Host: yeti

Timers On : Mon Apr  9 10:16:52 2018
Timers Off: Mon Apr  9 10:16:53 2018

Wall Time:        0.12 seconds


-----------------------------------------------------------

***********************************************************

Host: yeti

Timers On : Mon Apr  9 10:17:00 2018
Timers Off: Mon Apr  9 10:17:00 2018

Wall Time:        0.14 seconds


-----------------------------------------------------------

***********************************************************

Host: yeti

Timers On : Mon Apr  9 10:20:32 2018
Timers Off: Mon Apr  9 10:20:33 2018

Wall Time:        0.12 seconds


-----------------------------------------------------------

***********************************************************

Host: yeti

Timers On : Mon Apr  9 11:32:45 2018
Timers Off: Mon Apr  9 11:32:45 2018

Wall Time:        0.13 seconds


-----------------------------------------------------------

***********************************************************

Host: yeti

Timers On : Mon Apr  9 11:33:12 2018
Timers Off: Mon Apr  9 11:33:12 2018

Wall Time:        0.14 seconds


-----------------------------------------------------------

***********************************************************

Host: yeti

Timers On : Fri Apr 13 13:00:07 2018
Timers Off: Fri Apr 13 13:00:08 2018

Wall Time:        1.54 seconds


-----------------------------------------------------------

***********************************************************

Host: yeti

Timers On : Fri Apr 13 13:01:09 2018
Timers Off: Fri Apr 13 13:01:09 2018

Wall Time:        0.11 seconds


-----------------------------------------------------------

***********************************************************

Host: yeti

Timers On : Fri Apr 13 13:02:51 2018
Timers Off: Fri Apr 13 13:02:52 2018

Wall Time:        0.50 seconds


-----------------------------------------------------------

***********************************************************

Host: yeti

Timers On : Fri Apr 13 13:04:58 2018
Timers Off: Fri Apr 13 13:04:58 2018

Wall Time:        0.12 seconds


-----------------------------------------------------------

***********************************************************

Host: yeti

Timers On : Fri Apr 13 13:05:18 2018
Timers Off: Fri Apr 13 13:05:18 2018

Wall Time:        0.14 seconds


-----------------------------------------------------------

***********************************************************

Host: yeti

Timers On : Fri Apr 13 13:07:46 2018
Timers Off: Fri Apr 13 13:07:46 2018

Wall Time:        0.12 seconds


-----------------------------------------------------------

***********************************************************

Host: yeti

Timers On : Fri Apr 13 13:13:45 2018
Timers Off: Fri Apr 13 13:13:45 2018

Wall Time:        0.12 seconds


-----------------------------------------------------------

***********************************************************

Host: yeti

Timers On : Fri Apr 13 13:14:26 2018
Timers Off: Fri Apr 13 13:14:26 2018

Wall Time:        0.12 seconds


-----------------------------------------------------------

***********************************************************

Host: yeti

Timers On : Fri Apr 13 13:14:48 2018
Timers Off: Fri Apr 13 13:14:48 2018

Wall Time:        0.12 seconds


-----------------------------------------------------------

***********************************************************

Host: yeti

Timers On : Fri Apr 13 13:21:11 2018
Timers Off: Fri Apr 13 13:21:11 2018

Wall Time:        0.18 seconds


-----------------------------------------------------------

***********************************************************

Host: yeti

Timers On : Fri Apr 13 13:27:29 2018
Timers Off: Fri Apr 13 13:27:30 2018

Wall Time:        0.12 seconds


-----------------------------------------------------------

***********************************************************

Host: yeti

Timers On : Fri Apr 13 13:29:42 2018
Timers Off: Fri Apr 13 13:29:42 2018

Wall Time:        0.14 seconds


-----------------------------------------------------------

***********************************************************

Host: yeti

Timers On : Fri Apr 13 13:30:59 2018
Timers Off: Fri Apr 13 13:30:59 2018

Wall Time:        0.12 seconds


-----------------------------------------------------------

***********************************************************

Host: yeti

Timers On : Fri Apr 13 13:31:19 2018
Timers Off: Fri Apr 13 13:31:19 2018

Wall Time:        0.13 seconds


-----------------------------------------------------------

***********************************************************

Host: yeti

Timers On : Fri Apr 13 13:31:30 2018
Timers Off: Fri Apr 13 13:31:30 2018

Wall Time:        0.13 seconds


-----------------------------------------------------------

***********************************************************

Host: yeti

Timers On : Fri Apr 13 13:48:05 2018
Timers Off: Fri Apr 13 13:48:05 2018

Wall Time:        0.12 seconds


-----------------------------------------------------------

***********************************************************

Host: yeti

Timers On : Fri Apr 13 13:49:25 2018
Timers Off: Fri Apr 13 13:49:25 2018

Wall Time:        0.13 seconds


-----------------------------------------------------------

***********************************************************

Host: yeti

Timers On : Fri Apr 13 13:53:51 2018
Timers Off: Fri Apr 13 13:53:51 2018

Wall Time:        0.13 seconds


-----------------------------------------------------------

***********************************************************

Host: yeti

Timers On : Fri Apr 13 13:53:58 2018
Timers Off: Fri Apr 13 13:53:58 2018

Wall Time:        0.14 seconds


-----------------------------------------------------------

***********************************************************

Host: yeti

Timers On : Fri Apr 13 13:55:09 2018
Timers Off: Fri Apr 13 13:55:10 2018

Wall Time:        0.22 seconds


-----------------------------------------------------------

***********************************************************

Host: yeti

Timers On : Fri Apr 13 13:56:08 2018
Timers Off: Fri Apr 13 13:56:08 2018

Wall Time:        0.12 seconds


-----------------------------------------------------------

***********************************************************

Host: yeti

Timers On : Fri Apr 13 13:56:59 2018
Timers Off: Fri Apr 13 13:56:59 2018

Wall Time:        0.15 seconds


-----------------------------------------------------------

***********************************************************

Host: yeti

Timers On : Fri Apr 13 13:57:40 2018
Timers Off: Fri Apr 13 13:57:40 2018

Wall Time:        0.14 seconds


-----------------------------------------------------------

***********************************************************

Host: yeti

Timers On : Fri Apr 13 13:58:18 2018
Timers Off: Fri Apr 13 13:58:18 2018

Wall Time:        0.17 seconds


-----------------------------------------------------------

***********************************************************

Host: yeti

Timers On : Fri Apr 13 13:59:59 2018
Timers Off: Fri Apr 13 13:59:59 2018

Wall Time:        0.14 seconds


-----------------------------------------------------------

***********************************************************

Host: yeti

Timers On : Fri Apr 13 14:02:47 2018
Timers Off: Fri Apr 13 14:02:47 2018

Wall Time:        0.12 seconds


-----------------------------------------------------------

***********************************************************

Host: yeti

Timers On : Fri Apr 13 14:03:41 2018
Timers Off: Fri Apr 13 14:03:41 2018

Wall Time:        0.12 seconds


-----------------------------------------------------------

***********************************************************

Host: yeti

Timers On : Fri Apr 13 14:05:11 2018
Timers Off: Fri Apr 13 14:05:11 2018

Wall Time:        0.12 seconds


-----------------------------------------------------------

***********************************************************

Host: yeti

Timers On : Fri Apr 13 14:05:16 2018
Timers Off: Fri Apr 13 14:05:16 2018

Wall Time:        0.14 seconds


-----------------------------------------------------------

***********************************************************

Host: yeti

Timers On : Fri Apr 13 14:05:37 2018
Timers Off: Fri Apr 13 14:05:37 2018

Wall Time:        0.14 seconds


-----------------------------------------------------------

***********************************************************

Host: yeti

Timers On : Fri Apr 13 14:07:33 2018
Timers Off: Fri Apr 13 14:07:33 2018

Wall Time:        0.12 seconds


-----------------------------------------------------------

***********************************************************

Host: yeti

Timers On : Fri Apr 13 14:12:06 2018
Timers Off: Fri Apr 13 14:12:06 2018

Wall Time:        0.14 seconds


-----------------------------------------------------------

***********************************************************

Host: yeti

Timers On : Fri Apr 13 14:12:38 2018
Timers Off: Fri Apr 13 14:12:38 2018

Wall Time:        0.14 seconds


-----------------------------------------------------------

***********************************************************

Host: yeti

Timers On : Fri Apr 13 14:21:59 2018
Timers Off: Fri Apr 13 14:21:59 2018

Wall Time:        0.14 seconds


-----------------------------------------------------------

***********************************************************

Host: yeti

Timers On : Fri Apr 13 14:23:46 2018
Timers Off: Fri Apr 13 14:23:46 2018

Wall Time:        0.14 seconds


-----------------------------------------------------------

***********************************************************

Host: yeti

Timers On : Fri Apr 13 14:24:35 2018
Timers Off: Fri Apr 13 14:24:35 2018

Wall Time:        0.14 seconds


-----------------------------------------------------------

***********************************************************

Host: yeti

Timers On : Fri Apr 13 14:25:03 2018
Timers Off: Fri Apr 13 14:25:03 2018

Wall Time:        0.14 seconds


-----------------------------------------------------------

***********************************************************

Host: yeti

Timers On : Tue Apr 17 11:57:20 2018
Timers Off: Tue Apr 17 11:57:22 2018

Wall Time:        1.80 seconds


-----------------------------------------------------------

***********************************************************

Host: yeti

Timers On : Tue Apr 17 11:58:10 2018
Timers Off: Tue Apr 17 11:58:11 2018

Wall Time:        0.12 seconds


-----------------------------------------------------------

***********************************************************

Host: yeti

Timers On : Tue Apr 17 11:59:24 2018
Timers Off: Tue Apr 17 11:59:24 2018

Wall Time:        0.13 seconds


-----------------------------------------------------------

***********************************************************

Host: yeti

Timers On : Tue Apr 17 11:59:38 2018
Timers Off: Tue Apr 17 11:59:38 2018

Wall Time:        0.12 seconds


-----------------------------------------------------------

***********************************************************

Host: yeti

Timers On : Mon Apr 30 12:34:02 2018
Timers Off: Mon Apr 30 12:34:37 2018

Wall Time:       34.73 seconds


-----------------------------------------------------------

***********************************************************

Host: yeti

Timers On : Mon Apr 30 12:45:17 2018
Timers Off: Mon Apr 30 12:45:17 2018

Wall Time:        0.17 seconds


-----------------------------------------------------------

***********************************************************

Host: yeti

Timers On : Mon Apr 30 12:45:28 2018
Timers Off: Mon Apr 30 12:45:28 2018

Wall Time:        0.18 seconds


-----------------------------------------------------------

***********************************************************

Host: yeti

Timers On : Mon Apr 30 12:45:51 2018
Timers Off: Mon Apr 30 12:45:51 2018

Wall Time:        0.18 seconds


-----------------------------------------------------------

***********************************************************

Host: yeti

Timers On : Mon Apr 30 12:47:17 2018
Timers Off: Mon Apr 30 12:47:18 2018

Wall Time:        0.23 seconds


-----------------------------------------------------------

***********************************************************

Host: yeti

Timers On : Mon Apr 30 12:47:50 2018
Timers Off: Mon Apr 30 12:47:50 2018

Wall Time:        0.21 seconds


-----------------------------------------------------------

***********************************************************

Host: yeti

Timers On : Mon Apr 30 12:50:34 2018
Timers Off: Mon Apr 30 12:50:34 2018

Wall Time:        0.28 seconds


-----------------------------------------------------------

***********************************************************

Host: yeti

Timers On : Mon Apr 30 12:50:52 2018
Timers Off: Mon Apr 30 12:50:55 2018

Wall Time:        3.60 seconds


-----------------------------------------------------------

***********************************************************

Host: yeti

Timers On : Mon Apr 30 13:02:58 2018
Timers Off: Mon Apr 30 13:03:28 2018

Wall Time:       30.09 seconds


-----------------------------------------------------------

***********************************************************

Host: yeti

Timers On : Tue May  1 09:26:28 2018
Timers Off: Tue May  1 09:26:30 2018

Wall Time:        2.20 seconds


-----------------------------------------------------------

***********************************************************

Host: yeti

Timers On : Tue May  1 09:26:55 2018
Timers Off: Tue May  1 09:26:59 2018

Wall Time:        3.75 seconds


-----------------------------------------------------------

***********************************************************

Host: yeti

Timers On : Tue May  1 09:27:18 2018
Timers Off: Tue May  1 09:27:21 2018

Wall Time:        3.44 seconds


-----------------------------------------------------------

***********************************************************

Host: yeti

Timers On : Tue May  1 09:27:32 2018
Timers Off: Tue May  1 09:27:36 2018

Wall Time:        3.55 seconds


-----------------------------------------------------------

***********************************************************

Host: yeti

Timers On : Tue May  1 09:27:48 2018
Timers Off: Tue May  1 09:27:51 2018

Wall Time:        3.62 seconds


-----------------------------------------------------------

***********************************************************

Host: yeti

Timers On : Wed May  9 14:26:55 2018
Timers Off: Wed May  9 14:26:55 2018

Wall Time:        0.19 seconds


-----------------------------------------------------------

***********************************************************

Host: yeti

Timers On : Wed May  9 14:27:18 2018
Timers Off: Wed May  9 14:27:18 2018

Wall Time:        0.23 seconds


-----------------------------------------------------------

***********************************************************

Host: yeti

Timers On : Wed May  9 14:28:00 2018
Timers Off: Wed May  9 14:28:00 2018

Wall Time:        0.23 seconds


-----------------------------------------------------------

***********************************************************

Host: yeti

Timers On : Wed May  9 14:29:46 2018
Timers Off: Wed May  9 14:29:47 2018

Wall Time:        0.23 seconds


-----------------------------------------------------------

***********************************************************

Host: yeti

Timers On : Wed May  9 14:29:58 2018
Timers Off: Wed May  9 14:29:58 2018

Wall Time:        0.23 seconds


-----------------------------------------------------------

***********************************************************

Host: yeti

Timers On : Wed May  9 14:30:37 2018
Timers Off: Wed May  9 14:30:37 2018

Wall Time:        0.24 seconds


-----------------------------------------------------------

***********************************************************

Host: yeti

Timers On : Wed May  9 14:40:54 2018
Timers Off: Wed May  9 14:40:55 2018

Wall Time:        0.24 seconds


-----------------------------------------------------------

***********************************************************

Host: yeti

Timers On : Wed May  9 14:41:30 2018
Timers Off: Wed May  9 14:41:30 2018

Wall Time:        0.23 seconds


-----------------------------------------------------------

***********************************************************

Host: yeti

Timers On : Wed May  9 15:04:04 2018
Timers Off: Wed May  9 15:04:04 2018

Wall Time:        0.22 seconds


-----------------------------------------------------------

***********************************************************

Host: yeti

Timers On : Wed May  9 15:04:16 2018
Timers Off: Wed May  9 15:04:16 2018

Wall Time:        0.24 seconds


-----------------------------------------------------------

***********************************************************

Host: yeti

Timers On : Wed May  9 15:04:45 2018
Timers Off: Wed May  9 15:04:45 2018

Wall Time:        0.25 seconds


-----------------------------------------------------------

***********************************************************

Host: yeti

Timers On : Wed May  9 15:12:47 2018
Timers Off: Wed May  9 15:12:47 2018

Wall Time:        0.25 seconds


-----------------------------------------------------------

***********************************************************

Host: yeti

Timers On : Wed May  9 15:24:59 2018
Timers Off: Wed May  9 15:24:59 2018

Wall Time:        0.25 seconds


-----------------------------------------------------------

***********************************************************

Host: yeti

Timers On : Wed May  9 15:27:07 2018
Timers Off: Wed May  9 15:27:07 2018

Wall Time:        0.24 seconds


-----------------------------------------------------------

***********************************************************

Host: yeti

Timers On : Wed May  9 15:27:20 2018
Timers Off: Wed May  9 15:27:20 2018

Wall Time:        0.24 seconds


-----------------------------------------------------------

***********************************************************

Host: yeti

Timers On : Wed May  9 15:35:18 2018
Timers Off: Wed May  9 15:35:19 2018

Wall Time:        0.24 seconds


-----------------------------------------------------------

***********************************************************

Host: yeti

Timers On : Wed May  9 15:35:56 2018
Timers Off: Wed May  9 15:35:56 2018

Wall Time:        0.25 seconds


-----------------------------------------------------------

***********************************************************

Host: yeti

Timers On : Wed May  9 15:36:35 2018
Timers Off: Wed May  9 15:36:35 2018

Wall Time:        0.24 seconds


-----------------------------------------------------------

***********************************************************

Host: yeti

Timers On : Wed May  9 15:36:41 2018
Timers Off: Wed May  9 15:36:42 2018

Wall Time:        0.21 seconds


-----------------------------------------------------------

***********************************************************

Host: yeti

Timers On : Wed May  9 15:38:02 2018
Timers Off: Wed May  9 15:38:02 2018

Wall Time:        0.20 seconds


-----------------------------------------------------------

***********************************************************

Host: yeti

Timers On : Wed May  9 15:43:42 2018
Timers Off: Wed May  9 15:43:43 2018

Wall Time:        0.21 seconds


-----------------------------------------------------------

***********************************************************
