
Host: yeti

Timers On : Wed Apr 25 10:51:09 2018
Timers Off: Wed Apr 25 10:51:11 2018

Wall Time:        2.19 seconds


-----------------------------------------------------------

***********************************************************

Host: yeti

Timers On : Wed Apr 25 10:52:33 2018
Timers Off: Wed Apr 25 10:52:34 2018

Wall Time:        0.98 seconds


-----------------------------------------------------------

***********************************************************

Host: yeti

Timers On : Wed Apr 25 10:53:09 2018
Timers Off: Wed Apr 25 10:53:09 2018

Wall Time:        0.32 seconds


-----------------------------------------------------------

***********************************************************

Host: yeti

Timers On : Wed Apr 25 10:59:55 2018
Timers Off: Wed Apr 25 10:59:55 2018

Wall Time:        0.31 seconds


-----------------------------------------------------------

***********************************************************

Host: yeti

Timers On : Wed Apr 25 11:04:30 2018
Timers Off: Wed Apr 25 11:04:30 2018

Wall Time:        0.27 seconds


-----------------------------------------------------------

***********************************************************

Host: yeti

Timers On : Tue May  1 09:35:15 2018
Timers Off: Tue May  1 09:35:16 2018

Wall Time:        0.28 seconds


-----------------------------------------------------------

***********************************************************

Host: yeti

Timers On : Tue May  1 09:54:55 2018
Timers Off: Tue May  1 09:54:55 2018

Wall Time:        0.25 seconds


-----------------------------------------------------------

***********************************************************

Host: yeti

Timers On : Tue May  1 10:00:16 2018
Timers Off: Tue May  1 10:00:16 2018

Wall Time:        0.15 seconds


-----------------------------------------------------------

***********************************************************

Host: yeti

Timers On : Tue May  1 10:00:33 2018
Timers Off: Tue May  1 10:00:33 2018

Wall Time:        0.15 seconds


-----------------------------------------------------------

***********************************************************

Host: yeti

Timers On : Tue May  1 10:40:17 2018
Timers Off: Tue May  1 10:40:17 2018

Wall Time:        0.24 seconds


-----------------------------------------------------------

***********************************************************

Host: yeti

Timers On : Tue May  1 10:45:27 2018
Timers Off: Tue May  1 10:45:27 2018

Wall Time:        0.21 seconds


-----------------------------------------------------------

***********************************************************

Host: yeti

Timers On : Tue May  1 11:22:13 2018
Timers Off: Tue May  1 11:22:13 2018

Wall Time:        0.30 seconds


-----------------------------------------------------------

***********************************************************

Host: yeti

Timers On : Tue May  1 11:22:26 2018
Timers Off: Tue May  1 11:22:26 2018

Wall Time:        0.23 seconds


-----------------------------------------------------------

***********************************************************

Host: yeti

Timers On : Tue May  1 11:22:47 2018
Timers Off: Tue May  1 11:22:47 2018

Wall Time:        0.23 seconds


-----------------------------------------------------------

***********************************************************

Host: yeti

Timers On : Tue May  1 11:23:18 2018
Timers Off: Tue May  1 11:23:19 2018

Wall Time:        0.22 seconds


-----------------------------------------------------------

***********************************************************

Host: yeti

Timers On : Wed May  9 14:06:52 2018
Timers Off: Wed May  9 14:06:55 2018

Wall Time:        2.75 seconds


-----------------------------------------------------------

***********************************************************
